
***************************************************************
*                 Welcome to use GPUMD                        *
*     (Graphics Processing Units Molecular Dynamics)          *
*                     version 4.7                             *
*              This is the gpumd executable                   *
***************************************************************


---------------------------------------------------------------
Compiling options:
---------------------------------------------------------------

DEBUG is off: Use different PRNG seeds for different runs.

---------------------------------------------------------------
GPU information:
---------------------------------------------------------------

number of GPUs = 1
Device id:                   0
    Device name:             Tesla V100-SXM2-32GB
    Compute capability:      7.0
    Amount of global memory: 31.7391 GB
    Number of SMs:           80

---------------------------------------------------------------
Started running GPUMD.
---------------------------------------------------------------


---------------------------------------------------------------
Started initializing positions and related parameters.
---------------------------------------------------------------

Number of atoms is 8192.
Use periodic boundary conditions along x.
Use periodic boundary conditions along y.
Use periodic boundary conditions along z.
Box matrix h = [a, b, c] is
    4.8156620026e+01    2.4078310013e+01    2.4078310013e+01
    0.0000000000e+00    4.1704856302e+01    1.3901618768e+01
    0.0000000000e+00    0.0000000000e+00    3.9319715600e+01
Inverse box matrix g = inv(h) is
    2.0765576975e-02   -1.1989011456e-02   -8.4775113004e-03
    0.0000000000e+00    2.3978022913e-02   -8.4775113009e-03
    0.0000000000e+00    0.0000000000e+00    2.5432533902e-02
Do not specify initial velocities here.
Have no grouping method.
There are 2 atom types.
    4096 atoms of type 0.
    4096 atoms of type 1.
Initialized velocities with default T = 300 K.

---------------------------------------------------------------
Finished initializing positions and related parameters.
---------------------------------------------------------------


---------------------------------------------------------------
Started executing the commands in run.in.
---------------------------------------------------------------

Use the NEP4 potential with 2 atom types.
    type 0 (Mg with Z = 12).
    type 1 (O with Z = 8).
    radial cutoff = 5 A.
    angular cutoff = 5 A.
    MN_radial = 66.
    enlarged MN_radial = 83.
    enlarged MN_angular = 83.
    n_max_radial = 8.
    n_max_angular = 8.
    basis_size_radial = 8.
    basis_size_angular = 8.
    l_max_3body = 4.
    l_max_4body = 2.
    l_max_5body = 0.
    ANN = 54-30-1.
    number of neural network parameters = 3361.
    number of descriptor parameters = 648.
    total number of parameters = 4009.

Start to do an energy minimization.
    using the fast inertial relaxation engine (FIRE) method.
    with variable box.
    with hydrostatic pressure.
    with a force tolerance of 1e-06 eV/A.
    for maximally 10000 steps.

Energy minimization with changed box started.
    step 0: total_potential = -700.3348723054 eV, f_max = 0.2600441449 eV/A, pressure = -4.3220961012 GPa.
    step 1000: total_potential = -730.5759210587 eV, f_max = 0.0499617145 eV/A, pressure = -0.8436378636 GPa.
    step 2000: total_potential = -731.6517579556 eV, f_max = 0.0087810153 eV/A, pressure = -0.1487181323 GPa.
    step 3000: total_potential = -731.6855443716 eV, f_max = 0.0015869662 eV/A, pressure = -0.0268913463 GPa.
    step 4000: total_potential = -731.6849669814 eV, f_max = 0.0003036502 eV/A, pressure = -0.0051458679 GPa.
    step 5000: total_potential = -731.6872748733 eV, f_max = 0.0000726222 eV/A, pressure = -0.0012307275 GPa.
    step 6000: total_potential = -731.6865544915 eV, f_max = 0.0000258284 eV/A, pressure = -0.0004377153 GPa.
    step 7000: total_potential = -731.6851943731 eV, f_max = 0.0000135329 eV/A, pressure = -0.0002293426 GPa.
    step 8000: total_potential = -731.6848092675 eV, f_max = 0.0000087611 eV/A, pressure = -0.0001484741 GPa.
    step 9000: total_potential = -731.6838985682 eV, f_max = 0.0000063177 eV/A, pressure = -0.0001070667 GPa.
    step 10000: total_potential = -731.6847468019 eV, f_max = 0.0000048269 eV/A, pressure = -0.0000818023 GPa.
Energy minimization finished.
Time step for this run is 0 fs.
Use NVE ensemble for this run.
Dump extended XYZ.
    for the whole system.
    every 1 steps.
    into file relaxed.xyz.
Run 1 steps.
    1 steps completed.

---------------------------------------------------------------
Time used for this run = 0.0235839 second.
Speed of this run = 347356 atom*step/second.
---------------------------------------------------------------

Cutoff distance for compute_phonon = 12 A.
displacement for compute_phonon = 0.01 A.

---------------------------------------------------------------
Finished executing the commands in run.in.
---------------------------------------------------------------


---------------------------------------------------------------
Time used = 75.067190 s.
---------------------------------------------------------------


---------------------------------------------------------------
Finished running GPUMD.
---------------------------------------------------------------

