6750
Time=0.00000000 pbc="T T T" Lattice="44.70990039 0.00000000 0.00000000 22.35495020 38.71990954 0.00000000 22.35495020 12.90663651 36.50548080" energy=-602.89201462 virial="-0.01477771 0.00005912 -0.00014008 0.00005912 -0.01769064 -0.00070253 -0.00014008 -0.00070253 -0.01700464" stress="0.00275851 0.00000683 -0.00001107 0.00000683 0.00277476 0.00000073 -0.00001107 0.00000073 0.00274963" Properties=species:S:1:pos:R:3
Mg 0.42236698 0.24385380 0.17243073
O 3.40302672 1.96473864 1.38928005
Mg 1.91269691 1.10429622 2.60612939
O 4.89335672 2.82518104 3.82297875
Mg 3.40302681 1.96473865 5.03982815
O 6.38368669 3.68562345 6.25667747
Mg 4.89335677 2.82518110 7.47352685
O 7.87401672 4.54606591 8.69037619
Mg 6.38368681 3.68562353 9.90722558
O 9.36434673 5.40650836 11.12407495
Mg 7.87401685 4.54606600 12.34092434
O 10.85467675 6.26695082 13.55777371
Mg 9.36434688 5.40650845 14.77462312
O 12.34500680 7.12739325 15.99147245
Mg 10.85467700 6.26695092 17.20832185
O 13.83533688 7.98783570 18.42517121
Mg 12.34500725 7.12739347 19.64202058
O 15.32566702 8.84827821 20.85886993
Mg 13.83533743 7.98783596 22.07571931
O 16.81599720 9.70872078 23.29256872
Mg 15.32566745 8.84827844 24.50941808
O 18.30632723 10.56916321 25.72626749
Mg 16.81599754 9.70872084 26.94311675
O 19.79665728 11.42960565 28.15996621
Mg 18.30632750 10.56916326 29.37681548
O 21.28698726 12.29004808 30.59366495
Mg 19.79665752 11.42960568 31.81051417
O 22.77731720 13.15049041 33.02736369
Mg 21.28698742 12.29004812 34.24421289
O 24.26764705 14.01093281 35.46106224
Mg 1.91269692 2.82518109 0.17243073
O 4.89335667 4.54606593 1.38927998
Mg 3.40302679 3.68562350 2.60612938
O 6.38368665 5.40650833 3.82297869
Mg 4.89335672 4.54606590 5.03982808
O 7.87401661 6.26695073 6.25667741
Mg 6.38368669 5.40650831 7.47352681
O 9.36434661 7.12739315 8.69037617
Mg 7.87401669 6.26695077 9.90722556
O 10.85467664 7.98783559 11.12407494
Mg 9.36434671 7.12739322 12.34092433
O 12.34500669 8.84827802 13.55777368
Mg 10.85467677 7.98783568 14.77462308
O 13.83533675 9.70872048 15.99147240
Mg 12.34500684 8.84827811 17.20832182
O 15.32566679 10.56916297 18.42517116
Mg 13.83533697 9.70872056 19.64202053
O 16.81599696 11.42960547 20.85886994
Mg 15.32566716 10.56916308 22.07571932
O 18.30632711 12.29004800 23.29256871
Mg 16.81599730 11.42960564 24.50941809
O 19.79665716 13.15049047 25.72626744
Mg 18.30632739 12.29004808 26.94311671
O 21.28698720 14.01093290 28.15996618
Mg 19.79665739 13.15049051 29.37681545
O 22.77731719 14.87137530 30.59366493
Mg 21.28698738 14.01093288 31.81051421
O 24.26764715 15.73181770 33.02736360
Mg 22.77731723 14.87137528 34.24421288
O 25.75797702 16.59226009 35.46106212
Mg 3.40302677 5.40650840 0.17243061
O 6.38368664 7.12739323 1.38927992
Mg 4.89335672 6.26695079 2.60612936
O 7.87401655 7.98783562 3.82297863
Mg 6.38368663 7.12739319 5.03982803
O 9.36434652 8.84827802 6.25667739
Mg 7.87401660 7.98783559 7.47352679
O 10.85467653 9.70872042 8.69037615
Mg 9.36434662 8.84827801 9.90722555
O 12.34500656 10.56916284 11.12407487
Mg 10.85467669 9.70872045 12.34092429
O 13.83533662 11.42960527 13.55777362
Mg 12.34500671 10.56916288 14.77462304
O 15.32566666 12.29004774 15.99147238
Mg 13.83533675 11.42960534 17.20832177
O 16.81599682 13.15049026 18.42517116
Mg 15.32566692 12.29004783 19.64202060
O 18.30632695 14.01093274 20.85886991
Mg 16.81599709 13.15049033 22.07571932
O 19.79665709 14.87137525 23.29256865
Mg 18.30632723 14.01093286 24.50941803
O 21.28698713 15.73181771 25.72626742
Mg 19.79665728 14.87137533 26.94311674
O 22.77731715 16.59226020 28.15996618
Mg 21.28698727 15.73181776 29.37681545
O 24.26764717 17.45270261 30.59366486
Mg 22.77731727 16.59226016 31.81051418
O 25.75797717 18.31314501 33.02736354
Mg 24.26764718 17.45270257 34.24421281
O 27.24830700 19.17358736 35.46106215
Mg 4.89335684 7.98783571 0.17243058
O 7.87401655 9.70872053 1.38927986
Mg 6.38368663 8.84827809 2.60612926
O 9.36434652 10.56916291 3.82297862
Mg 7.87401659 9.70872048 5.03982802
O 10.85467652 11.42960531 6.25667738
Mg 9.36434660 10.56916288 7.47352677
O 12.34500652 12.29004771 8.69037610
Mg 10.85467660 11.42960528 9.90722549
O 13.83533662 13.15049014 11.12407484
Mg 12.34500670 12.29004770 12.34092423
O 15.32566666 14.01093258 13.55777361
Mg 13.83533674 13.15049013 14.77462299
O 16.81599670 14.87137506 15.99147236
Mg 15.32566678 14.01093260 17.20832171
O 18.30632685 15.73181757 18.42517114
Mg 16.81599695 14.87137512 19.64202055
O 19.79665699 16.59226006 20.85886987
Mg 18.30632707 15.73181760 22.07571926
O 21.28698705 17.45270254 23.29256864
Mg 19.79665718 16.59226011 24.50941803
O 22.77731715 18.31314503 25.72626740
Mg 21.28698724 17.45270257 26.94311673
O 24.26764717 19.17358750 28.15996609
Mg 22.77731725 18.31314506 29.37681547
O 25.75797724 20.03402992 30.59366481
Mg 24.26764725 19.17358747 31.81051413
O 27.24830723 20.89447230 33.02736354
Mg 25.75797720 20.03402987 34.24421281
O 28.73863707 21.75491468 35.46106217
Mg 6.38368677 10.56916302 0.17243060
O 9.36434654 12.29004785 1.38927985
Mg 7.87401660 11.42960538 2.60612924
O 10.85467655 13.15049023 3.82297861
Mg 9.36434661 12.29004777 5.03982799
O 12.34500652 14.01093262 6.25667732
Mg 10.85467660 13.15049017 7.47352671
O 13.83533661 14.87137502 8.69037607
Mg 12.34500668 14.01093257 9.90722545
O 15.32566666 15.73181745 11.12407483
Mg 13.83533674 14.87137500 12.34092422
O 16.81599671 16.59225989 13.55777358
Mg 15.32566678 15.73181744 14.77462296
O 18.30632675 17.45270238 15.99147233
Mg 16.81599683 16.59225992 17.20832172
O 19.79665688 18.31314489 18.42517110
Mg 18.30632702 17.45270244 19.64202049
O 21.28698705 19.17358738 20.85886987
Mg 19.79665713 18.31314492 22.07571926
O 22.77731715 20.03402986 23.29256863
Mg 21.28698723 19.17358740 24.50941801
O 24.26764718 20.89447234 25.72626734
Mg 22.77731725 20.03402989 26.94311676
O 25.75797721 21.75491481 28.15996603
Mg 24.26764729 20.89447236 29.37681547
O 27.24830732 22.61535724 30.59366476
Mg 25.75797733 21.75491478 31.81051413
O 28.73863732 23.47579961 33.02736353
Mg 27.24830726 22.61535718 34.24421280
O 30.22896715 24.33624200 35.46106221
Mg 7.87401687 13.15049028 0.17243059
O 10.85467669 14.87137515 1.38927991
Mg 9.36434665 14.01093270 2.60612921
O 12.34500662 15.73181755 3.82297855
Mg 10.85467660 14.87137509 5.03982794
O 13.83533660 16.59225993 6.25667729
Mg 12.34500668 15.73181748 7.47352668
O 15.32566667 17.45270234 8.69037606
Mg 13.83533675 16.59225988 9.90722544
O 16.81599672 18.31314477 11.12407481
Mg 15.32566679 17.45270231 12.34092419
O 18.30632676 19.17358721 13.55777356
Mg 16.81599683 18.31314475 14.77462294
O 19.79665682 20.03402970 15.99147233
Mg 18.30632687 19.17358724 17.20832171
O 21.28698698 20.89447221 18.42517110
Mg 19.79665706 20.03402978 19.64202049
O 22.77731712 21.75491470 20.85886987
Mg 21.28698721 20.89447224 22.07571925
O 24.26764721 22.61535717 23.29256863
Mg 22.77731726 21.75491472 24.50941801
O 25.75797727 23.47579966 25.72626731
Mg 24.26764735 22.61535721 26.94311670
O 27.24830734 24.33624213 28.15996600
Mg 25.75797742 23.47579968 29.37681543
O 28.73863746 25.19668455 30.59366477
Mg 27.24830746 24.33624210 31.81051411
O 30.22896742 26.05712695 33.02736346
Mg 28.73863735 25.19668451 34.24421280
O 31.71929721 26.91756934 35.46106221
Mg 9.36434693 15.73181768 0.17243068
O 12.34500685 17.45270249 1.38927999
Mg 10.85467680 16.59226001 2.60612920
O 13.83533672 18.31314488 3.82297853
Mg 12.34500668 17.45270241 5.03982790
O 15.32566667 19.17358725 6.25667729
Mg 13.83533675 18.31314479 7.47352667
O 16.81599675 20.03402966 8.69037604
Mg 15.32566680 19.17358720 9.90722543
O 18.30632682 20.89447209 11.12407478
Mg 16.81599684 20.03402963 12.34092417
O 19.79665687 21.75491453 13.55777355
Mg 18.30632691 20.89447208 14.77462294
O 21.28698695 22.61535702 15.99147233
Mg 19.79665701 21.75491456 17.20832171
O 22.77731716 23.47579958 18.42517115
Mg 21.28698712 22.61535711 19.64202048
O 24.26764724 24.33624204 20.85886997
Mg 22.77731732 23.47579956 22.07571928
O 25.75797739 25.19668462 23.29256877
Mg 24.26764740 24.33624214 24.50941812
O 27.24830745 26.05712707 25.72626750
Mg 25.75797745 25.19668470 26.94311691
O 28.73863754 26.91756952 28.15996622
Mg 27.24830757 26.05712709 29.37681560
O 30.22896759 27.77801195 30.59366491
Mg 28.73863760 26.91756953 31.81051430
O 31.71929757 28.63845432 33.02736367
Mg 30.22896742 27.77801185 34.24421293
O 33.20962736 29.49889666 35.46106225
Mg 10.85467706 18.31314501 0.17243075
O 13.83533698 20.03402984 1.38928006
Mg 12.34500686 19.17358739 2.60612926
O 15.32566679 20.89447223 3.82297863
Mg 13.83533675 20.03402974 5.03982789
O 16.81599680 21.75491460 6.25667730
Mg 15.32566683 20.89447211 7.47352666
O 18.30632685 22.61535701 8.69037607
Mg 16.81599690 21.75491452 9.90722539
O 19.79665690 23.47579948 11.12407482
Mg 18.30632698 22.61535695 12.34092412
O 21.28698701 24.33624192 13.55777362
Mg 19.79665701 23.47579943 14.77462294
O 22.77731716 25.19668447 15.99147246
Mg 21.28698713 24.33624191 17.20832171
O 24.26764721 26.05712696 18.42517129
Mg 22.77731732 25.19668444 19.64202052
O 25.75797741 26.91756947 20.85887006
Mg 24.26764747 26.05712711 22.07571950
O 27.24830757 27.77801204 23.29256888
Mg 25.75797753 26.91756957 24.50941816
O 28.73863761 28.63845448 25.72626764
Mg 27.24830762 27.77801201 26.94311693
O 30.22896767 29.49889693 28.15996638
Mg 28.73863769 28.63845444 29.37681563
O 31.71929770 30.35933933 30.59366513
Mg 30.22896773 29.49889686 31.81051441
O 33.20962767 31.21978167 33.02736372
Mg 31.71929757 30.35933924 34.24421305
O 34.69995751 32.08022399 35.46106232
Mg 12.34500721 20.89447236 0.17243079
O 15.32566706 22.61535723 1.38928011
Mg 13.83533701 21.75491470 2.60612937
O 16.81599690 23.47579960 3.82297876
Mg 15.32566687 22.61535709 5.03982803
O 18.30632693 24.33624199 6.25667742
Mg 16.81599698 23.47579950 7.47352680
O 19.79665700 25.19668441 8.69037618
Mg 18.30632700 24.33624192 9.90722555
O 21.28698704 26.05712686 11.12407494
Mg 19.79665707 25.19668437 12.34092430
O 22.77731715 26.91756931 13.55777373
Mg 21.28698712 26.05712682 14.77462306
O 24.26764723 27.77801185 15.99147256
Mg 22.77731729 26.91756940 17.20832188
O 25.75797740 28.63845440 18.42517135
Mg 24.26764750 27.77801198 19.64202074
O 27.24830757 29.49889694 20.85887012
Mg 25.75797763 28.63845452 22.07571950
O 28.73863763 30.35933943 23.29256888
Mg 27.24830769 29.49889702 24.50941827
O 30.22896767 31.21978186 25.72626763
Mg 28.73863775 30.35933945 26.94311702
O 31.71929774 32.08022429 28.15996638
Mg 30.22896780 31.21978183 29.37681577
O 33.20962782 32.94066668 30.59366513
Mg 31.71929783 32.08022421 31.81051452
O 34.69995779 33.80110902 33.02736381
Mg 33.20962772 32.94066658 34.24421305
O 36.19028766 34.66155139 35.46106238
Mg 13.83533732 23.47579973 0.17243089
O 16.81599713 25.19668460 1.38928023
Mg 15.32566709 24.33624209 2.60612949
O 18.30632705 26.05712697 3.82297882
Mg 16.81599702 25.19668448 5.03982815
O 19.79665707 26.91756939 6.25667759
Mg 18.30632710 26.05712690 7.47352690
O 21.28698712 27.77801182 8.69037631
Mg 19.79665710 26.91756934 9.90722557
O 22.77731717 28.63845426 11.12407507
Mg 21.28698716 27.77801178 12.34092434
O 24.26764725 29.49889674 13.55777381
Mg 22.77731735 28.63845429 14.77462311
O 25.75797737 30.35933924 15.99147259
Mg 24.26764748 29.49889689 17.20832197
O 27.24830755 31.21978177 18.42517136
Mg 25.75797762 30.35933933 19.64202074
O 28.73863764 32.08022428 20.85887012
Mg 27.24830772 31.21978191 22.07571951
O 30.22896772 32.94066675 23.29256886
Mg 28.73863778 32.08022434 24.50941824
O 31.71929776 33.80110918 25.72626761
Mg 30.22896782 32.94066677 26.94311700
O 33.20962783 34.66155161 28.15996636
Mg 31.71929790 33.80110915 29.37681574
O 34.69995788 35.52199400 30.59366512
Mg 33.20962792 34.66155154 31.81051450
O 36.19028789 36.38243637 33.02736384
Mg 34.69995775 35.52199393 34.24421308
O 37.68061774 37.24287874 35.46106251
Mg 15.32566740 26.05712705 0.17243090
O 18.30632719 27.77801192 1.38928017
Mg 16.81599721 26.91756946 2.60612955
O 19.79665716 28.63845431 3.82297881
Mg 18.30632717 27.77801184 5.03982820
O 21.28698718 29.49889671 6.25667755
Mg 19.79665720 28.63845428 7.47352694
O 22.77731722 30.35933915 8.69037631
Mg 21.28698725 29.49889676 9.90722570
O 24.26764729 31.21978159 11.12407504
Mg 22.77731733 30.35933925 12.34092446
O 25.75797731 32.08022405 13.55777383
Mg 24.26764739 31.21978170 14.77462320
O 27.24830746 32.94066656 15.99147260
Mg 25.75797754 32.08022424 17.20832198
O 28.73863755 33.80110910 18.42517135
Mg 27.24830767 32.94066675 19.64202074
O 30.22896775 34.66155160 20.85887009
Mg 28.73863780 33.80110923 22.07571948
O 31.71929779 35.52199407 23.29256884
Mg 30.22896784 34.66155166 24.50941822
O 33.20962783 36.38243650 25.72626758
Mg 31.71929791 35.52199409 26.94311697
O 34.69995789 37.24287892 28.15996634
Mg 33.20962797 36.38243647 29.37681573
O 36.19028794 38.10332132 30.59366507
Mg 34.69995802 37.24287886 31.81051447
O 37.68061784 38.96376369 33.02736381
Mg 36.19028790 38.10332123 34.24421320
O 39.17094773 39.82420608 35.46106255
Mg 16.81599747 28.63845439 0.17243092
O 19.79665727 30.35933924 1.38928007
Mg 18.30632735 29.49889678 2.60612952
O 21.28698714 31.21978162 3.82297878
Mg 19.79665723 30.35933917 5.03982823
O 22.77731721 32.08022403 6.25667753
Mg 21.28698729 31.21978160 7.47352692
O 24.26764726 32.94066646 8.69037629
Mg 22.77731734 32.08022408 9.90722568
O 25.75797730 33.80110890 11.12407506
Mg 24.26764738 32.94066657 12.34092444
O 27.24830736 34.66155137 13.55777383
Mg 25.75797742 33.80110902 14.77462322
O 28.73863744 35.52199388 15.99147258
Mg 27.24830763 34.66155158 17.20832197
O 30.22896765 36.38243641 18.42517132
Mg 28.73863776 35.52199407 19.64202072
O 31.71929776 37.24287891 20.85887007
Mg 30.22896787 36.38243654 22.07571945
O 33.20962783 38.10332138 23.29256881
Mg 31.71929791 37.24287897 24.50941819
O 34.69995787 38.96376381 25.72626757
Mg 33.20962797 38.10332138 26.94311696
O 36.19028793 39.82420621 28.15996630
Mg 34.69995802 38.96376378 29.37681568
O 37.68061791 40.68464861 30.59366504
Mg 36.19028799 39.82420617 31.81051443
O 39.17094789 41.54509100 33.02736378
Mg 37.68061795 40.68464855 34.24421313
O 40.66127770 42.40553340 35.46106246
Mg 18.30632750 31.21978170 0.17243092
O 21.28698725 32.94066653 1.38928012
Mg 19.79665733 32.08022408 2.60612951
O 22.77731724 33.80110892 3.82297876
Mg 21.28698733 32.94066648 5.03982825
O 24.26764727 34.66155132 6.25667751
Mg 22.77731735 33.80110890 7.47352696
O 25.75797727 35.52199373 8.69037629
Mg 24.26764739 34.66155136 9.90722567
O 27.24830725 36.38243620 11.12407506
Mg 25.75797744 35.52199388 12.34092444
O 28.73863730 37.24287869 13.55777381
Mg 27.24830752 36.38243634 14.77462317
O 30.22896753 38.10332119 15.99147254
Mg 28.73863766 37.24287887 17.20832195
O 31.71929772 38.96376373 18.42517129
Mg 30.22896783 38.10332136 19.64202068
O 33.20962777 39.82420621 20.85887003
Mg 31.71929787 38.96376383 22.07571942
O 34.69995782 40.68464866 23.29256879
Mg 33.20962790 39.82420627 24.50941818
O 36.19028791 41.54509109 25.72626752
Mg 34.69995801 40.68464867 26.94311691
O 37.68061783 42.40553350 28.15996627
Mg 36.19028799 41.54509107 29.37681565
O 39.17094791 43.26597591 30.59366501
Mg 37.68061802 42.40553347 31.81051435
O 40.66127781 44.12641831 33.02736372
Mg 39.17094790 43.26597587 34.24421305
O 42.15160773 44.98686071 35.46106245
Mg 19.79665741 33.80110898 0.17243075
O 22.77731716 35.52199384 1.38928007
Mg 21.28698730 34.66155138 2.60612947
O 24.26764718 36.38243622 3.82297877
Mg 22.77731726 35.52199378 5.03982819
O 25.75797720 37.24287857 6.25667752
Mg 24.26764728 36.38243618 7.47352694
O 27.24830723 38.10332100 8.69037628
Mg 25.75797732 37.24287865 9.90722569
O 28.73863718 38.96376341 11.12407501
Mg 27.24830738 38.10332110 12.34092438
O 30.22896722 39.82420590 13.55777377
Mg 28.73863761 38.96376365 14.77462312
O 31.71929743 40.68464847 15.99147245
Mg 30.22896770 39.82420614 17.20832190
O 33.20962767 41.54509097 18.42517124
Mg 31.71929782 40.68464859 19.64202064
O 34.69995775 42.40553342 20.85886997
Mg 33.20962783 41.54509107 22.07571941
O 36.19028779 43.26597585 23.29256874
Mg 34.69995787 42.40553352 24.50941813
O 37.68061783 44.12641832 25.72626747
Mg 36.19028791 43.26597595 26.94311688
O 39.17094781 44.98686077 28.15996624
Mg 37.68061799 44.12641836 29.37681558
O 40.66127781 45.84730319 30.59366501
Mg 39.17094790 44.98686077 31.81051428
O 42.15160771 46.70774562 33.02736368
Mg 40.66127784 45.84730317 34.24421304
O 43.64193766 47.56818802 35.46106244
Mg 21.28698735 36.38243618 0.17243079
O 24.26764704 38.10332103 1.38928002
Mg 22.77731720 37.24287859 2.60612945
O 25.75797699 38.96376336 3.82297877
Mg 24.26764719 38.10332102 5.03982816
O 27.24830703 39.82420579 6.25667752
Mg 25.75797720 38.96376342 7.47352693
O 28.73863701 40.68464821 8.69037624
Mg 27.24830714 39.82420586 9.90722563
O 30.22896705 41.54509068 11.12407497
Mg 28.73863718 40.68464827 12.34092438
O 31.71929709 42.40553313 13.55777372
Mg 30.22896734 41.54509083 14.77462312
O 33.20962713 43.26597560 15.99147246
Mg 31.71929755 42.40553334 17.20832185
O 34.69995741 44.12641815 18.42517120
Mg 33.20962769 43.26597583 19.64202064
O 36.19028758 44.98686064 20.85886997
Mg 34.69995776 44.12641828 22.07571935
O 37.68061769 45.84730313 23.29256870
Mg 36.19028788 44.98686071 24.50941809
O 39.17094769 46.70774557 25.72626747
Mg 37.68061786 45.84730318 26.94311685
O 40.66127761 47.56818800 28.15996626
Mg 39.17094789 46.70774563 29.37681552
O 42.15160759 48.42863047 30.59366499
Mg 40.66127779 47.56818805 31.81051429
O 43.64193757 49.28907291 33.02736367
Mg 42.15160774 48.42863044 34.24421295
O 45.13226753 50.14951534 35.46106241
Mg 3.40302688 0.24385389 0.17243072
O 6.38368676 1.96473861 1.38927999
Mg 4.89335676 1.10429623 2.60612938
O 7.87401669 2.82518101 3.82297874
Mg 6.38368674 1.96473865 5.03982813
O 9.36434665 3.68562343 6.25667746
Mg 7.87401672 2.82518107 7.47352685
O 10.85467668 4.54606587 8.69037617
Mg 9.36434664 3.68562350 9.90722561
O 12.34500669 5.40650830 11.12407494
Mg 10.85467666 4.54606596 12.34092434
O 13.83533669 6.26695077 13.55777369
Mg 12.34500679 5.40650839 14.77462309
O 15.32566672 7.12739325 15.99147244
Mg 13.83533681 6.26695085 17.20832184
O 16.81599690 7.98783571 18.42517117
Mg 15.32566692 7.12739335 19.64202059
O 18.30632708 8.84827828 20.85886995
Mg 16.81599706 7.98783592 22.07571936
O 19.79665716 9.70872075 23.29256871
Mg 18.30632724 8.84827836 24.50941810
O 21.28698723 10.56916318 25.72626744
Mg 19.79665734 9.70872080 26.94311675
O 22.77731730 11.42960561 28.15996619
Mg 21.28698732 10.56916322 29.37681549
O 24.26764723 12.29004803 30.59366495
Mg 22.77731725 11.42960560 31.81051422
O 25.75797715 13.15049042 33.02736359
Mg 24.26764722 12.29004808 34.24421289
O 27.24830706 14.01093277 35.46106208
Mg 4.89335675 2.82518110 0.17243068
O 7.87401667 4.54606590 1.38927997
Mg 6.38368665 3.68562347 2.60612936
O 9.36434657 5.40650830 3.82297869
Mg 7.87401661 4.54606587 5.03982808
O 10.85467657 6.26695070 6.25667740
Mg 9.36434664 5.40650829 7.47352679
O 12.34500657 7.12739310 8.69037617
Mg 10.85467664 6.26695073 9.90722556
O 13.83533660 7.98783553 11.12407492
Mg 12.34500665 7.12739316 12.34092432
O 15.32566660 8.84827802 13.55777368
Mg 13.83533667 7.98783563 14.77462307
O 16.81599664 9.70872051 15.99147240
Mg 15.32566672 8.84827811 17.20832179
O 18.30632671 10.56916294 18.42517117
Mg 16.81599675 9.70872057 19.64202057
O 19.79665689 11.42960544 20.85886994
Mg 18.30632700 10.56916314 22.07571933
O 21.28698704 12.29004795 23.29256867
Mg 19.79665712 11.42960561 24.50941809
O 22.77731718 13.15049047 25.72626742
Mg 21.28698720 12.29004804 26.94311680
O 24.26764721 14.01093289 28.15996618
Mg 22.77731720 13.15049044 29.37681556
O 25.75797715 14.87137529 30.59366487
Mg 24.26764711 14.01093285 31.81051424
O 27.24830711 15.73181769 33.02736355
Mg 25.75797709 14.87137527 34.24421294
O 28.73863699 16.59226004 35.46106210
Mg 6.38368671 5.40650839 0.17243068
O 9.36434660 7.12739319 1.38927992
Mg 7.87401656 6.26695076 2.60612931
O 10.85467649 7.98783559 3.82297863
Mg 9.36434652 7.12739316 5.03982802
O 12.34500645 8.84827799 6.25667739
Mg 10.85467653 7.98783556 7.47352678
O 13.83533649 9.70872039 8.69037615
Mg 12.34500656 8.84827796 9.90722554
O 15.32566653 10.56916282 11.12407487
Mg 13.83533660 9.70872041 12.34092426
O 16.81599656 11.42960526 13.55777362
Mg 15.32566664 10.56916288 14.77462300
O 18.30632658 12.29004774 15.99147239
Mg 16.81599663 11.42960537 17.20832178
O 19.79665667 13.15049025 18.42517114
Mg 18.30632675 12.29004780 19.64202055
O 21.28698689 14.01093274 20.85886989
Mg 19.79665698 13.15049030 22.07571930
O 22.77731706 14.87137521 23.29256864
Mg 21.28698713 14.01093281 24.50941803
O 24.26764711 15.73181771 25.72626741
Mg 22.77731717 14.87137533 26.94311679
O 25.75797713 16.59226018 28.15996615
Mg 24.26764711 15.73181775 29.37681550
O 27.24830711 17.45270258 30.59366483
Mg 25.75797707 16.59226015 31.81051421
O 28.73863710 18.31314498 33.02736354
Mg 27.24830706 17.45270255 34.24421284
O 30.22896695 19.17358736 35.46106219
Mg 7.87401668 7.98783570 0.17243065
O 10.85467653 9.70872051 1.38927985
Mg 9.36434647 8.84827805 2.60612924
O 12.34500645 10.56916290 3.82297862
Mg 10.85467644 9.70872045 5.03982800
O 13.83533643 11.42960530 6.25667738
Mg 12.34500644 10.56916285 7.47352677
O 15.32566647 12.29004770 8.69037610
Mg 13.83533648 11.42960526 9.90722548
O 16.81599653 13.15049013 11.12407484
Mg 15.32566654 12.29004768 12.34092423
O 18.30632658 14.01093257 13.55777361
Mg 16.81599658 13.15049012 14.77462300
O 19.79665666 14.87137506 15.99147236
Mg 18.30632662 14.01093260 17.20832175
O 21.28698675 15.73181757 18.42517111
Mg 19.79665684 14.87137512 19.64202052
O 22.77731695 16.59226006 20.85886987
Mg 21.28698702 15.73181760 22.07571926
O 24.26764707 17.45270254 23.29256865
Mg 22.77731706 16.59226013 24.50941803
O 25.75797711 18.31314503 25.72626740
Mg 24.26764707 17.45270260 26.94311679
O 27.24830713 19.17358749 28.15996609
Mg 25.75797709 18.31314504 29.37681544
O 28.73863713 20.03402990 30.59366480
Mg 27.24830709 19.17358744 31.81051415
O 30.22896707 20.89447228 33.02736348
Mg 28.73863703 20.03402984 34.24421282
O 31.71929692 21.75491467 35.46106210
Mg 9.36434659 10.56916300 0.17243056
O 12.34500657 12.29004783 1.38927984
Mg 10.85467644 11.42960537 2.60612923
O 13.83533649 13.15049022 3.82297861
Mg 12.34500646 12.29004776 5.03982800
O 15.32566644 14.01093261 6.25667732
Mg 13.83533644 13.15049016 7.47352671
O 16.81599650 14.87137502 8.69037607
Mg 15.32566654 14.01093257 9.90722545
O 18.30632651 15.73181746 11.12407484
Mg 16.81599658 14.87137500 12.34092422
O 19.79665655 16.59225989 13.55777359
Mg 18.30632663 15.73181743 14.77462297
O 21.28698672 17.45270238 15.99147233
Mg 19.79665671 16.59225992 17.20832172
O 22.77731683 18.31314489 18.42517110
Mg 21.28698691 17.45270247 19.64202049
O 24.26764698 19.17358738 20.85886987
Mg 22.77731703 18.31314492 22.07571926
O 25.75797705 20.03402985 23.29256863
Mg 24.26764707 19.17358740 24.50941802
O 27.24830709 20.89447234 25.72626732
Mg 25.75797714 20.03402989 26.94311670
O 28.73863716 21.75491478 28.15996602
Mg 27.24830716 20.89447236 29.37681542
O 30.22896719 22.61535722 30.59366476
Mg 28.73863715 21.75491476 31.81051407
O 31.71929714 23.47579959 33.02736346
Mg 30.22896700 22.61535716 34.24421272
O 33.20962689 24.33624199 35.46106209
Mg 10.85467659 13.15049031 0.17243046
O 13.83533661 14.87137516 1.38927983
Mg 12.34500648 14.01093269 2.60612922
O 15.32566653 15.73181753 3.82297855
Mg 13.83533651 14.87137507 5.03982794
O 16.81599654 16.59225993 6.25667729
Mg 15.32566652 15.73181747 7.47352668
O 18.30632659 17.45270234 8.69037606
Mg 16.81599659 16.59225988 9.90722545
O 19.79665661 18.31314477 11.12407481
Mg 18.30632663 17.45270232 12.34092420
O 21.28698666 19.17358721 13.55777356
Mg 19.79665668 18.31314477 14.77462294
O 22.77731673 20.03402970 15.99147233
Mg 21.28698680 19.17358724 17.20832171
O 24.26764693 20.89447221 18.42517110
Mg 22.77731696 20.03402978 19.64202049
O 25.75797704 21.75491471 20.85886987
Mg 24.26764704 20.89447224 22.07571925
O 27.24830710 22.61535718 23.29256859
Mg 25.75797708 21.75491472 24.50941797
O 28.73863718 23.47579966 25.72626731
Mg 27.24830714 22.61535725 26.94311667
O 30.22896728 24.33624214 28.15996599
Mg 28.73863724 23.47579965 29.37681537
O 31.71929728 25.19668456 30.59366472
Mg 30.22896724 24.33624209 31.81051406
O 33.20962726 26.05712691 33.02736349
Mg 31.71929697 25.19668448 34.24421271
O 34.69995704 26.91756931 35.46106207
Mg 12.34500673 15.73181763 0.17243052
O 15.32566666 17.45270251 1.38927981
Mg 13.83533655 16.59226002 2.60612917
O 16.81599663 18.31314488 3.82297852
Mg 15.32566662 17.45270239 5.03982791
O 18.30632663 19.17358725 6.25667729
Mg 16.81599660 18.31314480 7.47352668
O 19.79665663 20.03402967 8.69037604
Mg 18.30632667 19.17358721 9.90722543
O 21.28698670 20.89447209 11.12407479
Mg 19.79665674 20.03402963 12.34092417
O 22.77731674 21.75491455 13.55777356
Mg 21.28698678 20.89447212 14.77462294
O 24.26764685 22.61535702 15.99147233
Mg 22.77731694 21.75491459 17.20832171
O 25.75797704 23.47579958 18.42517120
Mg 24.26764707 22.61535712 19.64202048
O 27.24830719 24.33624215 20.85886998
Mg 25.75797718 23.47579960 22.07571924
O 28.73863728 25.19668463 23.29256872
Mg 27.24830730 24.33624221 24.50941810
O 30.22896732 26.05712714 25.72626744
Mg 28.73863738 25.19668462 26.94311684
O 31.71929737 26.91756957 28.15996616
Mg 30.22896737 26.05712708 29.37681552
O 33.20962743 27.77801191 30.59366493
Mg 31.71929735 26.91756946 31.81051418
O 34.69995740 28.63845423 33.02736359
Mg 33.20962713 27.77801180 34.24421276
O 36.19028720 29.49889664 35.46106218
Mg 13.83533685 18.31314498 0.17243067
O 16.81599683 20.03402986 1.38927999
Mg 15.32566670 19.17358737 2.60612924
O 18.30632675 20.89447222 3.82297854
Mg 16.81599671 20.03402974 5.03982791
O 19.79665674 21.75491459 6.25667730
Mg 18.30632670 20.89447215 7.47352668
O 21.28698680 22.61535701 8.69037605
Mg 19.79665676 21.75491453 9.90722540
O 22.77731684 23.47579945 11.12407483
Mg 21.28698682 22.61535696 12.34092417
O 24.26764692 24.33624199 13.55777367
Mg 22.77731693 23.47579941 14.77462294
O 25.75797708 25.19668453 15.99147248
Mg 24.26764708 24.33624195 17.20832175
O 27.24830713 26.05712702 18.42517128
Mg 25.75797719 25.19668453 19.64202063
O 28.73863726 26.91756950 20.85887003
Mg 27.24830733 26.05712701 22.07571938
O 30.22896739 27.77801211 23.29256887
Mg 28.73863739 26.91756955 24.50941813
O 31.71929747 28.63845454 25.72626760
Mg 30.22896746 27.77801201 26.94311687
O 33.20962752 29.49889696 28.15996637
Mg 31.71929752 28.63845445 29.37681564
O 34.69995759 30.35933930 30.59366509
Mg 33.20962752 29.49889681 31.81051431
O 36.19028749 31.21978166 33.02736367
Mg 34.69995728 30.35933914 34.24421285
O 37.68061734 32.08022398 35.46106231
Mg 15.32566690 20.89447237 0.17243076
O 18.30632693 22.61535723 1.38928001
Mg 16.81599677 21.75491472 2.60612931
O 19.79665682 23.47579956 3.82297865
Mg 18.30632675 22.61535710 5.03982803
O 21.28698685 24.33624199 6.25667741
Mg 19.79665681 23.47579950 7.47352680
O 22.77731694 25.19668441 8.69037617
Mg 21.28698690 24.33624198 9.90722556
O 24.26764698 26.05712691 11.12407495
Mg 22.77731705 25.19668440 12.34092429
O 25.75797704 26.91756935 13.55777378
Mg 24.26764707 26.05712687 14.77462306
O 27.24830714 27.77801191 15.99147258
Mg 25.75797722 26.91756941 17.20832191
O 28.73863726 28.63845441 18.42517137
Mg 27.24830734 27.77801192 19.64202064
O 30.22896739 29.49889696 20.85887015
Mg 28.73863748 28.63845454 22.07571949
O 31.71929755 30.35933943 23.29256887
Mg 30.22896752 29.49889700 24.50941825
O 33.20962760 31.21978186 25.72626763
Mg 31.71929759 30.35933943 26.94311701
O 34.69995765 32.08022428 28.15996638
Mg 33.20962768 31.21978182 29.37681577
O 36.19028767 32.94066665 30.59366513
Mg 34.69995763 32.08022416 31.81051440
O 37.68061772 33.80110899 33.02736383
Mg 36.19028743 32.94066653 34.24421300
O 39.17094751 34.66155139 35.46106238
Mg 16.81599710 23.47579974 0.17243086
O 19.79665714 25.19668459 1.38928011
Mg 18.30632691 24.33624209 2.60612949
O 21.28698697 26.05712697 3.82297881
Mg 19.79665687 25.19668450 5.03982815
O 22.77731701 26.91756938 6.25667755
Mg 21.28698696 26.05712690 7.47352680
O 24.26764705 27.77801182 8.69037630
Mg 22.77731702 26.91756931 9.90722557
O 25.75797716 28.63845426 11.12407506
Mg 24.26764712 27.77801177 12.34092434
O 27.24830720 29.49889673 13.55777384
Mg 25.75797716 28.63845430 14.77462320
O 28.73863725 30.35933924 15.99147260
Mg 27.24830733 29.49889678 17.20832197
O 30.22896738 31.21978178 18.42517137
Mg 28.73863746 30.35933935 19.64202076
O 31.71929755 32.08022428 20.85887012
Mg 30.22896756 31.21978186 22.07571950
O 33.20962759 32.94066675 23.29256886
Mg 31.71929759 32.08022432 24.50941824
O 34.69995765 33.80110918 25.72626761
Mg 33.20962766 32.94066675 26.94311700
O 36.19028767 34.66155159 28.15996636
Mg 34.69995775 33.80110914 29.37681574
O 37.68061777 35.52199397 30.59366510
Mg 36.19028780 34.66155151 31.81051449
O 39.17094773 36.38243636 33.02736385
Mg 37.68061759 35.52199388 34.24421310
O 40.66127759 37.24287871 35.46106251
Mg 18.30632717 26.05712706 0.17243087
O 21.28698715 27.77801191 1.38928006
Mg 19.79665706 26.91756945 2.60612951
O 22.77731712 28.63845430 3.82297883
Mg 21.28698708 27.77801184 5.03982820
O 24.26764709 29.49889670 6.25667753
Mg 22.77731709 28.63845429 7.47352692
O 25.75797712 30.35933914 8.69037630
Mg 24.26764712 29.49889672 9.90722569
O 27.24830714 31.21978158 11.12407507
Mg 25.75797721 30.35933917 12.34092446
O 28.73863723 32.08022405 13.55777383
Mg 27.24830728 31.21978168 14.77462322
O 30.22896737 32.94066655 15.99147260
Mg 28.73863736 32.08022423 17.20832199
O 31.71929751 33.80110910 18.42517135
Mg 30.22896756 32.94066674 19.64202073
O 33.20962760 34.66155159 20.85887009
Mg 31.71929766 33.80110921 22.07571947
O 34.69995763 35.52199406 23.29256884
Mg 33.20962771 34.66155164 24.50941822
O 36.19028769 36.38243649 25.72626758
Mg 34.69995775 35.52199406 26.94311697
O 37.68061774 37.24287889 28.15996634
Mg 36.19028780 36.38243646 29.37681572
O 39.17094785 38.10332129 30.59366506
Mg 37.68061781 37.24287883 31.81051445
O 40.66127774 38.96376368 33.02736382